# LAMMPS data file written by QEM

1303 atoms
3 atom types

2.4199212648925954 74.2965175296645 xlo xhi
-1.67162256167996 75.26064116916932 ylo yhi
0.0 1.82255 zlo zhi

Masses

1 88.90585  # Y3+
2 26.981538  # Al3+
3 15.9994  # O2-

Atoms  # atomic

1 1 53.71773266240326 63.98831393442536 0.0
2 1 56.17006617405677 66.0409478293332 0.0
3 1 59.074887893061295 66.32525182114063 1.82255
4 1 53.010586207390155 61.153749816234296 1.82255
5 1 55.899650473045654 61.394628096847285 0.0
6 1 58.32060267771042 63.471246759305714 0.0
7 1 61.25606311780265 63.6674430366142 1.82255
8 1 55.185778947260935 58.51448127342622 1.82255
9 1 51.46921785343811 66.65149217478782 0.0
10 1 53.951435273352295 68.74174422342502 0.0
11 1 56.850958105123965 68.9718777313523 1.82255
12 1 50.78860511909424 63.755533462279224 1.82255
13 1 58.10367849561405 58.793737026180146 0.0
14 1 60.556920798403446 60.85315037366471 0.0
15 1 63.505755071764604 61.026379091988915 1.82255
16 1 57.40353366149642 55.896398130935346 1.82255
17 1 49.29504237561026 69.32347111317343 0.0
18 1 51.68052650188338 71.38486642538389 0.0
19 1 54.58534566051742 71.63621297012702 1.82255
20 1 48.561603923189146 66.40220049337958 1.82255
21 1 47.05553064867085 71.88177760028017 0.0
22 1 46.34305423822258 69.10330816503945 1.82255
23 1 60.34668792725419 56.09069205483102 0.0
24 1 62.76134223158889 58.183936884563636 0.0
25 1 65.67183696280992 58.39117422687154 1.82255
26 1 59.66570140756083 53.268321434711375 1.82255
27 1 62.155384632899995 71.33434377461245 0.0
28 1 61.471773857800954 68.43428032878428 1.82255
29 1 45.21708871645917 56.75443155504367 0.0
30 1 47.61991634126678 58.903023321615414 0.0
31 1 50.567492936636455 59.08687583670023 1.82255
32 1 44.491364045646606 53.943892861438286 1.82255
33 1 59.261950278519066 71.07446113034526 1.82255
34 1 64.3790314845786 68.67413615039567 0.0
35 1 66.75292145398835 70.70393814283187 0.0
36 1 69.76793297507288 71.03419727384147 1.82255
37 1 63.705631484470814 65.80032414528868 1.82255
38 1 42.99013447237433 59.386110752850634 0.0
39 1 45.44937118619055 61.4793572965548 0.0
40 1 48.379866776721904 61.67541954906977 1.82255
41 1 42.26447945557867 56.56197879941516 1.82255
42 1 47.44898937054264 54.1294175589308 0.0
43 1 49.89410235110048 56.24149800230739 0.0
44 1 52.771905956333526 56.41685483190649 1.82255
45 1 46.7071524210506 51.29898637958648 1.82255
46 1 66.62156151416923 65.98992510357576 0.0
47 1 68.98439498934225 68.0412521594872 0.0
48 1 71.79488288320023 68.36309723397784 1.82255
49 1 65.90111575365528 63.1100302721611 1.82255
50 1 40.80368306546482 62.04290810378948 0.0
51 1 43.208341053938305 64.10481122154195 0.0
52 1 46.17828655509249 64.29491219153148 1.82255
53 1 40.050442243639964 59.183952286311225 1.82255
54 1 49.639606640572744 51.51194391399069 0.0
55 1 52.11221004520749 53.572586011955565 0.0
56 1 54.99011285873402 53.77563165255115 1.82255
57 1 48.96181595597743 48.676160994193026 1.82255
58 1 44.11471499152601 71.69628004732232 1.82255
59 1 62.57641649728223 53.4433700596357 0.0
60 1 65.00664619917154 55.52631711954069 0.0
61 1 67.8624380068154 55.81790761147623 1.82255
62 1 61.83795115553874 50.60926920952668 1.82255
63 1 38.569929066855536 64.70134604143676 0.0
64 1 41.02071646866955 66.77070268177036 0.0
65 1 43.933769635827375 67.01168247840296 1.82255
66 1 37.87686730590526 61.83322956009027 1.82255
67 1 68.84804272708229 63.33208345746492 0.0
68 1 71.27868422429735 65.40755248579536 0.0
69 1 68.1161557331189 60.49029252726147 1.82255
70 1 51.85270751409314 48.89116874883974 0.0
71 1 54.26150822135337 50.91274979180811 0.0
72 1 57.209560844633934 51.20629799969923 1.82255
73 1 51.168620850252374 45.99855606692441 1.82255
74 1 64.72562578472956 50.8766433129381 0.0
75 1 67.21552519593136 52.9299227035694 0.0
76 1 70.07409681784657 53.15173736267745 1.82255
77 1 64.11007680099468 48.02143599061747 1.82255
78 1 71.10232192319035 60.695590573268 0.0
79 1 70.38033202952073 57.85399541694119 1.82255
80 1 54.03072564939588 46.218681827939044 0.0
81 1 56.48998043172402 48.30926590361632 0.0
82 1 59.435090241444364 48.51053277787435 1.82255
83 1 53.4014148676121 43.34695545652809 1.82255
84 1 36.3850150202173 67.32491973918226 0.0
85 1 38.766008276023356 69.39816279768881 0.0
86 1 41.65932747502329 69.67070951863641 1.82255
87 1 35.6707475681845 64.479814256947 1.82255
88 1 72.12859099849683 55.285267301607334 1.82255
89 1 56.301822900296095 43.52409600805 0.0
90 1 58.72731949738842 45.644180077641884 0.0
91 1 61.657606240922654 45.887800360973635 1.82255
92 1 55.60535093105132 40.701116594645185 1.82255
93 1 34.20027019978297 69.8817834463476 0.0
94 1 36.56605745481748 71.9224933058186 0.0
95 1 39.49744809174937 72.11888816717328 1.82255
96 1 33.511022169197425 67.08327942521285 1.82255
97 1 67.02157389973277 48.16581845115495 0.0
98 1 69.3957622137939 50.30698737698737 0.0
99 1 72.05280826423834 50.49970727763038 1.82255
100 1 66.33070413789444 45.288425245402195 1.82255
101 1 36.75841009133552 49.58653442053817 0.0
102 1 39.16522128473569 51.64200930348281 0.0
103 1 42.08324363330811 51.878493792547474 1.82255
104 1 36.04543068529763 46.65088241307317 1.82255
105 1 34.53167059615458 52.21494183201893 0.0
106 1 36.96382094228782 54.269492484155876 0.0
107 1 39.89454598909557 54.52120548379368 1.82255
108 1 33.84340450913585 49.33257414276394 1.82255
109 1 38.961850509237586 46.930588682772154 0.0
110 1 41.38906098125695 49.040645399002265 0.0
111 1 44.30375023174261 49.248397548505174 1.82255
112 1 38.23734521861262 44.0299095027536 1.82255
113 1 32.355772823295695 54.84865243590589 0.0
114 1 34.7325839425574 56.885851256753426 0.0
115 1 37.66194625247465 57.129812555702394 1.82255
116 1 31.622829168019695 52.00076510507093 1.82255
117 1 41.182292282570856 44.237581508905905 0.0
118 1 43.56680813757018 46.34811647520157 0.0
119 1 46.493561535713724 46.57235766159319 1.82255
120 1 40.443829298898024 41.39854622077399 1.82255
121 1 31.988553319148906 72.43432370575715 0.0
122 1 31.23906047601126 69.73517960832481 1.82255
123 1 58.54709568340796 40.93638577781912 0.0
124 1 60.956751299837606 43.04149689966386 0.0
125 1 63.88976137318434 43.167542538158685 1.82255
126 1 57.83582828468539 38.0670893241547 1.82255
127 1 69.30634257252751 45.46253598957692 0.0
128 1 71.63924913579913 47.595163990136086 0.0
129 1 68.55944719325517 42.619213880015636 1.82255
130 1 43.403866690041255 41.64626738555635 0.0
131 1 45.795608144898544 43.727356915543034 0.0
132 1 48.75925333878202 43.91583328408504 1.82255
133 1 42.685278292554806 38.79947966249065 1.82255
134 1 30.09719817436496 57.48208423522461 0.0
135 1 32.5090335910785 59.56400885475823 0.0
136 1 35.447109255053974 59.806061406171594 1.82255
137 1 29.390175344822026 54.61742088322771 1.82255
138 1 45.602525959972965 39.00171401965153 0.0
139 1 47.99234688903187 41.0638139992941 0.0
140 1 50.93475846464757 41.269158831975396 1.82255
141 1 44.94369021887016 36.16583655909165 1.82255
142 1 27.88154036254716 60.10928909579389 0.0
143 1 30.30402940169524 62.18578093591002 0.0
144 1 33.25429691803151 62.43523022767965 1.82255
145 1 27.1286709954923 57.27779171308716 1.82255
146 1 60.780146493398036 38.26508216505142 0.0
147 1 63.18343151940777 40.309146827733215 0.0
148 1 66.1589556700421 40.52355398641783 1.82255
149 1 60.081629097853174 35.379490287261696 1.82255
150 1 28.98382392370457 72.22870179087685 1.82255
151 1 71.47538064680313 42.87334847184554 0.0
152 1 70.88513277396851 40.05499072515094 1.82255
153 1 47.91065585571136 36.40396268316919 0.0
154 1 50.2635216521356 38.39756153801479 0.0
155 1 53.17641472609297 38.63628871247323 1.82255
156 1 47.151844117314205 33.54426247183555 1.82255
157 1 25.646150257275103 62.77210169248406 0.0
158 1 28.13148959706598 64.82672913518384 0.0
159 1 31.077091303882867 65.10268718082025 1.82255
160 1 24.887924306444788 59.92521185053068 1.82255
161 1 63.011674819791914 35.64991599304072 0.0
162 1 65.42979653094491 37.684526086412305 0.0
163 1 68.29427043421798 37.90582617015163 1.82255
164 1 62.31480762481728 32.82331743160964 1.82255
165 1 50.10007645746437 33.77028267720743 0.0
166 1 52.519346638902896 35.78966884478233 0.0
167 1 55.42623634593164 35.99348424602946 1.82255
168 1 49.370346526461326 30.881147829014864 1.82255
169 1 23.47453386041632 65.37840362098629 0.0
170 1 25.907914925861427 67.4589192130011 0.0
171 1 28.848871030460394 67.69450739984663 1.82255
172 1 22.695387282722464 62.54299444468902 1.82255
173 1 72.30169214323213 37.4652676704801 1.82255
174 1 52.3388316695664 31.12205184162061 0.0
175 1 54.74155239954604 33.15838942218721 0.0
176 1 57.66117397903403 33.32524762942164 1.82255
177 1 51.605897736000834 28.227890993674293 1.82255
178 1 21.27238547096125 67.99244497227528 0.0
179 1 23.72211378015645 70.10622253342153 0.0
180 1 26.654654559428195 70.39131567807716 1.82255
181 1 20.48695639580339 65.1142508450105 1.82255
182 1 65.22263910548904 32.983139887152106 0.0
183 1 67.65553346690348 35.09969502190502 0.0
184 1 70.61151973764662 35.29473374160468 1.82255
185 1 64.47730471459528 30.107011853508034 1.82255
186 1 28.191024499376883 42.239443282334655 0.0
187 1 30.647916609943195 44.39550320066296 0.0
188 1 33.60428829539815 44.56395690079523 1.82255
189 1 27.505594150677172 39.475083228686664 1.82255
190 1 26.00218200471899 44.81595294760882 0.0
191 1 28.362110400400745 47.017881245506686 0.0
192 1 31.363181516134482 47.28379138563622 1.82255
193 1 25.356671782448768 42.04545358988452 1.82255
194 1 30.492654254672395 39.65435807724222 0.0
195 1 32.82026347616922 41.70655755604661 0.0
196 1 35.78752807449101 41.96107918134065 1.82255
197 1 29.786060445367568 36.943426895509674 1.82255
198 1 23.802900372183483 47.593621200455786 0.0
199 1 26.229171709373126 49.64530586752844 0.0
200 1 29.147209374872613 49.90326433298321 1.82255
201 1 23.032990565559135 44.89295803476269 1.82255
202 1 32.65471510987609 36.97188040624134 0.0
203 1 35.08102551807863 39.11661477923131 0.0
204 1 38.025510967244784 39.36265122102256 1.82255
205 1 32.14069877792512 34.24445470852071 1.82255
206 1 34.84455433132978 34.318554535571934 0.0
207 1 37.24701457897221 36.48396456327941 0.0
208 1 40.27859519704607 36.72915211132163 1.82255
209 1 34.306907755050844 31.65532106816088 1.82255
210 1 21.507177002756734 50.251401997833305 0.0
211 1 24.022480227993846 52.194740450609025 0.0
212 1 26.97915272004692 52.529623768378904 1.82255
213 1 20.753603379999884 47.391747003113224 1.82255
214 1 54.538619745380856 28.447147311950015 0.0
215 1 56.93663587667139 30.470091340700023 0.0
216 1 59.87744042254276 30.687647114846197 1.82255
217 1 53.804618542193914 25.566123209361514 1.82255
218 1 19.105185438071402 70.68882863243383 0.0
219 1 21.467658332460424 72.63695201665618 0.0
220 1 24.522114831036443 72.80941203895189 1.82255
221 1 18.372906082392134 67.75978804413327 1.82255
222 1 36.983718959941704 31.649927579389487 0.0
223 1 39.476713110911376 33.85258849099192 0.0
224 1 42.499510459800675 34.11598432674424 1.82255
225 1 36.499729278934225 28.983043497139192 1.82255
226 1 19.22604153920374 52.80018282386281 0.0
227 1 21.671552071617583 54.874949749282436 0.0
228 1 24.725525764753584 55.14460083432918 1.82255
229 1 18.654957663516818 49.99398758041723 1.82255
230 1 67.43269401276092 30.350947456330324 0.0
231 1 69.81438316207152 32.40332258723732 0.0
232 1 72.31385817418308 32.74553541433663 1.82255
233 1 66.75468170192893 27.536267041404372 1.82255
234 1 17.233722069795135 55.33075592248446 0.0
235 1 19.48196902945715 57.606629786528096 0.0
236 1 22.47938036571798 57.79815899621509 1.82255
237 1 16.448253685840253 52.514827261609376 1.82255
238 1 39.35634466397782 29.145059856940318 0.0
239 1 41.72446563363181 31.203537523920772 0.0
240 1 44.6904547179297 31.393913511465566 1.82255
241 1 38.672068614587474 26.267574159665926 1.82255
242 1 16.226756673702788 70.45790998010655 1.82255
243 1 56.74692568054028 25.790307765723604 0.0
244 1 59.18015300115462 27.85614862054911 0.0
245 1 62.0923294679348 28.066050147919626 1.82255
246 1 56.048477140203836 22.948008159615615 1.82255
247 1 14.988288975237834 57.85520016006865 0.0
248 1 17.263918152941613 60.215129256179296 0.0
249 1 20.29712455573999 60.470312145552576 1.82255
250 1 14.560514926730239 55.03871103815639 1.82255
251 1 41.62922742531604 26.593732124320525 0.0
252 1 44.03735859707122 28.59975770797895 0.0
253 1 46.977192324952156 28.81616004894516 1.82255
254 1 40.85195740308621 23.720413619320958 1.82255
255 1 69.68963748865175 27.754679996615582 0.0
256 1 71.88399623330788 29.769072468275446 0.0
257 1 68.92930480105143 24.85024940188784 1.82255
258 1 58.9521323753535 23.15804244683788 0.0
259 1 61.35967705683616 25.210613348564465 0.0
260 1 64.23502282346176 25.437280962764422 1.82255
261 1 58.26198867189507 20.278988039664558 1.82255
262 1 43.79895769526783 23.916900123615967 0.0
263 1 46.203619623530706 25.97275051915544 0.0
264 1 49.185988017441126 26.14240710120793 1.82255
265 1 43.10431075306717 21.012488506154977 1.82255
266 1 13.081309739653733 60.3405806931689 0.0
267 1 15.04606844913467 62.913601794720876 0.0
268 1 18.03421348238185 63.09219849991082 1.82255
269 1 12.506089456276849 57.390323565846586 1.82255
270 1 71.77629121562748 25.069853128449605 0.0
271 1 71.26941247174757 22.136413588013138 1.82255
272 1 46.074823857595575 21.20864522893157 0.0
273 1 48.48881035002546 23.269907280012564 0.0
274 1 51.41660724866326 23.434980303004675 1.82255
275 1 45.26636939016054 18.30416075135526 1.82255
276 1 12.996447521760215 65.52679624758655 0.0
277 1 15.840698964501689 65.65717584668633 1.82255
278 1 11.204300272818719 59.817939428868655 1.82255
279 1 61.21179380243357 20.507542956300874 0.0
280 1 63.58347574243951 22.58677729414014 0.0
281 1 66.5574602164477 22.682708297178397 1.82255
282 1 60.46087404571835 17.61443362051971 1.82255
283 1 27.39095791483108 34.98121902916635 1.82255
284 1 27.239631356309893 32.35578706277476 0.0
285 1 29.610106443780307 32.11768548355774 1.82255
286 1 10.58660581853217 67.8615868611206 0.0
287 1 13.74063558263158 68.3446666559246 1.82255
288 1 7.025113494174441 63.658015458444076 1.82255
289 1 48.22939947848794 18.56989682098847 0.0
290 1 50.687151862388085 20.57376850834848 0.0
291 1 53.614403716716424 20.8607931682839 1.82255
292 1 47.525721020308254 15.693362699153592 1.82255
293 1 29.58644263870037 29.636261356531318 0.0
294 1 32.0724973411236 29.38091468383253 1.82255
295 1 63.35671243299488 17.84136516293949 0.0
296 1 65.83817762735318 19.89204396789643 0.0
297 1 68.83014429072512 20.066040379868344 1.82255
298 1 62.71331057694843 14.942674145421135 1.82255
299 1 33.75440738040165 23.910729204957622 0.0
300 1 36.40485517388747 23.92934687453572 1.82255
301 1 6.110695320355187 70.07396602898783 0.0
302 1 8.795280325242237 70.60549848928251 0.0
303 1 11.620700419476949 70.9264045937608 1.82255
304 1 4.918649945470439 66.16255890018545 1.82255
305 1 50.47812201200056 15.920185731496323 0.0
306 1 52.86019757415833 17.955691895497317 0.0
307 1 55.761779398940796 18.19444233572025 1.82255
308 1 49.70199289007807 13.06880107725279 1.82255
309 1 35.803237812422395 21.046685605488136 0.0
310 1 38.562293328304584 21.45971023866291 1.82255
311 1 65.57253491193319 15.194252600814089 0.0
312 1 68.06745486670839 17.254645823124132 0.0
313 1 71.02355765215535 17.453906026830868 1.82255
314 1 64.95710110481788 12.34167316457524 1.82255
315 1 3.599970004460032 71.1597630217372 0.0
316 1 2.932227443024843 68.29926211104133 1.82255
317 1 52.670401371517116 13.30663673404937 0.0
318 1 55.09547506808776 15.315208321434822 0.0
319 1 58.052337467446335 15.54888973354352 1.82255
320 1 51.96702861246116 10.441591687959486 1.82255
321 1 37.826761702773 18.62722387710476 0.0
322 1 40.70777597416249 18.773908189606498 1.82255
323 1 39.89765091413778 15.99420542117714 0.0
324 1 42.912630141385215 16.0703145512751 1.82255
325 1 54.943633106394415 10.692796214925922 0.0
326 1 57.388374891582004 12.710867466820488 0.0
327 1 60.3470675176719 12.909924877613607 1.82255
328 1 54.27529073606127 7.804252227174272 1.82255
329 1 67.87352988057428 12.54604066342018 0.0
330 1 70.33692448779661 14.61093168675502 0.0
331 1 67.21255555918763 9.677099616264549 1.82255
332 1 42.16889171254776 13.307867315528298 0.0
333 1 45.13466204868689 13.551784088673182 1.82255
334 1 57.230224058986394 7.978691833058791 0.0
335 1 59.61060951928201 10.070514401531506 0.0
336 1 62.57433255088866 10.261123454508466 1.82255
337 1 56.51989263517113 5.122075656099342 1.82255
338 1 42.04500699953914 8.394757154053135 0.0
339 1 44.384128538741734 10.812230240770122 0.0
340 1 47.32509614359765 10.947911854896414 1.82255
341 1 70.08003817701942 9.898552830076563 0.0
342 1 72.13047594148321 12.080699445092097 0.0
343 1 69.43859542522492 7.029024947216824 1.82255
344 1 44.28575281765899 5.841570664657207 0.0
345 1 46.718052526809274 8.134338584330404 0.0
346 1 49.649693322969256 8.298124360782507 1.82255
347 1 43.45844256129246 3.001847028223519 1.82255
348 1 59.4604723808623 5.32562955070635 0.0
349 1 61.91659148524343 7.339410814840755 0.0
350 1 64.85567523500544 7.589646750505992 1.82255
351 1 58.78834427689283 2.3692196152340426 1.82255
352 1 46.40463950603513 3.365876731694721 0.0
353 1 48.9080730413183 5.4254003445248955 0.0
354 1 51.852476793178404 5.695969031195601 1.82255
355 1 61.718559590887494 2.649372761308138 0.0
356 1 64.14281307275647 4.604294195306444 0.0
357 1 67.05120476354541 4.96290701593816 1.82255
358 1 51.12369729087981 2.809884304263038 0.0
359 1 54.0701650992805 3.0684422472876993 1.82255
360 1 53.23077026840288 0.04682814616055901 0.0
361 2 56.21244788212563 63.66941189775363 1.82255
362 2 59.31578673847043 68.65996405499561 0.0
363 2 58.38282422523809 61.11964200459788 1.82255
364 2 61.54666310489628 66.0389452822812 0.0
365 2 53.96846292601335 66.3809248332477 1.82255
366 2 57.06813816338365 71.7116825843575 0.0
367 2 60.56784457927492 58.477351574133394 1.82255
368 2 63.69252924228318 63.38342948881639 0.0
369 2 51.821749266308466 69.04732290124684 1.82255
370 2 49.54786277189625 71.87992413311053 1.82255
371 2 62.85223965829459 55.852241081178335 1.82255
372 2 65.95885696822447 60.73480168253597 0.0
373 2 64.6369489108791 72.18708330587754 1.82255
374 2 47.67258986464738 56.51953609025183 1.82255
375 2 50.87231568029219 61.476227519874314 0.0
376 2 64.6369489108791 72.18708330587754 1.82255
377 2 66.83636601083717 68.29512602857545 1.82255
378 2 45.417244970605694 59.12100784203906 1.82255
379 2 48.62597324552055 64.04600067196299 0.0
380 2 49.91159617109132 53.87090376841567 1.82255
381 2 53.038479053141785 58.801536806838435 0.0
382 2 69.11283270292148 65.70651164265925 1.82255
383 2 43.2634316436089 61.74047462494987 1.82255
384 2 46.42020492729291 66.7417905650977 0.0
385 2 52.082326607225546 51.21114914563098 1.82255
386 2 55.275416502207094 56.15412211197926 0.0
387 2 65.07515587247623 53.202882055890505 1.82255
388 2 68.22555634753425 58.16114005353403 0.0
389 2 41.00656302629738 64.39596157545535 1.82255
390 2 44.19933711286391 69.33711028090661 0.0
391 2 71.88411642541391 62.96771878666348 1.82255
392 2 54.303786404380176 48.57359642998648 1.82255
393 2 57.508721034150135 53.541469883122105 0.0
394 2 67.15718857302899 50.55296966434073 1.82255
395 2 70.12056173562647 55.486272663280936 0.0
396 2 56.550124392500706 45.93713731808114 1.82255
397 2 59.65188090313395 50.93219330168489 0.0
398 2 38.87983708221225 67.04380612716825 1.82255
399 2 41.958958832549186 72.04997936945293 0.0
400 2 58.7731964909467 43.3190068288208 1.82255
401 2 61.915317561253396 48.29698771907663 0.0
402 2 36.637830408348655 69.61367178760906 1.82255
403 2 69.43473939413043 47.87100653971074 1.82255
404 2 72.19874170627136 52.833917596248725 0.0
405 2 39.2291672591857 49.314963805616834 1.82255
406 2 42.372643220571604 54.24211740305506 0.0
407 2 36.98228785435757 51.89676728607688 1.82255
408 2 40.120719958879185 56.819482842503966 0.0
409 2 41.38248611750877 46.653213401066765 1.82255
410 2 44.520587582619 51.57843331749983 0.0
411 2 34.78777045425335 54.49503531438239 1.82255
412 2 37.86552226075449 59.42771326978004 0.0
413 2 43.62825071121081 44.028048396546886 1.82255
414 2 46.74960788729092 48.94451437282672 0.0
415 2 34.38120642093647 72.20109181292327 1.82255
416 2 61.021205109622336 40.65271363965535 1.82255
417 2 64.1735218847319 45.61723712476557 0.0
418 2 71.9472616996057 45.21875547092511 1.82255
419 2 45.75788808076129 41.40827566216504 1.82255
420 2 48.94318509043288 46.278961089227025 0.0
421 2 32.50102687846864 57.186688936140804 1.82255
422 2 35.68959275371769 62.15522073377346 0.0
423 2 48.021732667368994 38.71999023552807 1.82255
424 2 51.207890391257585 43.60589470614498 0.0
425 2 30.312961431656767 59.846715009783466 1.82255
426 2 33.51529410777092 64.79016990082167 0.0
427 2 63.31134458442382 37.99488350426197 1.82255
428 2 66.3606111747819 42.86761445942489 0.0
429 2 50.34722525793877 36.07379978080086 1.82255
430 2 53.38780044496026 40.99663638360786 0.0
431 2 28.12461515406786 62.47603930395114 1.82255
432 2 31.38984570021946 67.42306085181649 0.0
433 2 65.49221852699205 35.35087190883266 1.82255
434 2 68.71645087041767 40.276447436577506 0.0
435 2 52.555692190465614 33.43041503697987 1.82255
436 2 55.687861964808796 38.356145478316854 0.0
437 2 25.958403682200718 65.14102731379582 1.82255
438 2 29.11889020616371 70.07844854397759 0.0
439 2 54.74974893270785 30.783999150442742 1.82255
440 2 57.88872614402719 35.69249272975357 0.0
441 2 23.723528014852253 67.74568010465356 1.82255
442 2 67.66060816349714 32.71721384499281 1.82255
443 2 70.37190741095664 37.728370892544966 0.0
444 2 30.308771004846676 41.809696438157445 1.82255
445 2 33.74970118175775 46.88763279332019 0.0
446 2 28.065696749099555 44.444152334464924 1.82255
447 2 31.580472209243286 49.57167195969188 0.0
448 2 32.683024654368545 39.2784273217963 1.82255
449 2 35.94342164370118 44.23076244283678 0.0
450 2 25.83981522251213 46.99607379436143 1.82255
451 2 29.331434045524823 52.20644667079784 0.0
452 2 34.9171087865092 36.632803065880154 1.82255
453 2 38.18623059807739 41.687442479632566 0.0
454 2 37.08240088068108 33.951341457525636 1.82255
455 2 40.46497100361201 39.0173228610563 0.0
456 2 23.685062103432152 49.625693025076906 1.82255
457 2 27.107557145712434 54.85804465390269 0.0
458 2 57.01101777781279 28.122462054458122 1.82255
459 2 60.159350802396716 33.0296352548291 0.0
460 2 21.556465846220462 70.38335963250788 1.82255
461 2 39.400457505575154 31.480544420609235 1.82255
462 2 42.705153080525 36.43375431231355 0.0
463 2 21.69298722184926 52.47664218132496 1.82255
464 2 24.9022549981929 57.495067823332136 0.0
465 2 69.77717761363472 30.066563321415828 1.82255
466 2 19.28761790819632 55.083807268267826 1.82255
467 2 22.666070708641612 60.186147398332665 0.0
468 2 41.75588929565813 28.94123961926471 1.82255
469 2 44.911904547611385 33.73131676282809 0.0
470 2 18.92921078402827 73.17512331629759 1.82255
471 2 59.20750264939826 25.469628499913796 1.82255
472 2 62.30336197453082 30.43062448025532 0.0
473 2 17.040052970703325 57.65730703704619 1.82255
474 2 20.359100138506545 62.758165606436215 0.0
475 2 43.94702841615646 26.308572155364413 1.82255
476 2 47.13575330820055 31.107517254045685 0.0
477 2 72.07505494654023 27.38234814943046 1.82255
478 2 61.37873955450196 22.824284783191825 1.82255
479 2 64.6187699501549 27.79666029329337 0.0
480 2 46.20587686570744 23.58080177700021 1.82255
481 2 49.40424760096267 28.511527732389332 0.0
482 2 14.698355615422946 60.33099200535888 1.82255
483 2 18.212642473607705 65.32350230545444 0.0
484 2 48.444635783633196 20.930174628901486 1.82255
485 2 51.55200320523223 25.81929843415844 0.0
486 2 16.15115123709843 68.00465618683891 0.0
487 2 63.652886286438935 20.150637789325444 1.82255
488 2 66.71634072821621 25.099610267502317 0.0
489 2 24.52019534870496 39.54501725976377 0.0
490 2 27.503440389099715 37.08459978389368 0.0
491 2 23.527299831796718 42.70826807779806 0.0
492 2 29.975340744649355 34.57144246287028 0.0
493 2 10.85989094839979 65.65288484476966 1.82255
494 2 14.06074749001479 70.97870111290777 0.0
495 2 50.62595019051083 18.252449003391014 1.82255
496 2 53.83978104401699 23.215924089470782 0.0
497 2 32.12523131224805 31.930824579145145 0.0
498 2 34.21457546917068 29.258350776782294 0.0
499 2 65.8999505545997 17.542031121389766 1.82255
500 2 69.10011174275101 22.395556783716184 0.0
501 2 35.93951830315088 26.463144817954916 0.0
502 2 8.667199595534155 68.00738447804723 1.82255
503 2 52.915338496839524 15.60217209316128 1.82255
504 2 56.02243847093135 20.564921799870493 0.0
505 2 38.26767955811543 23.69071801584893 0.0
506 2 68.10529903209891 14.907902499003914 1.82255
507 2 71.8144893981606 19.71692316622023 0.0
508 2 55.1813092823387 12.960030387011937 1.82255
509 2 58.24076729408952 17.874962551936918 0.0
510 2 40.69197580119092 21.1824421481305 0.0
511 2 39.326772464764616 13.383664590304443 1.82255
512 2 42.83794995705616 18.552925335226757 0.0
513 2 57.41003263423113 10.338148135054618 1.82255
514 2 60.51907377217276 15.220565615252408 0.0
515 2 70.12013836640371 12.28702788504648 1.82255
516 2 71.8144893981606 19.71692316622023 0.0
517 2 41.32501956034195 10.668731147688154 1.82255
518 2 45.193829933666294 15.882756412472057 0.0
519 2 59.770391622781574 7.6641411234034384 1.82255
520 2 62.779474178948774 12.633804093332127 0.0
521 2 44.24996304858005 8.424713878031575 1.82255
522 2 47.27487805192143 13.24335452484891 0.0
523 2 72.20763630860503 9.628026056673326 1.82255
524 2 46.49575179153681 5.848657701670979 1.82255
525 2 49.6295389615058 10.668387070027123 0.0
526 2 61.9501539262953 4.960490427606312 1.82255
527 2 65.02855053212932 9.95820825259766 0.0
528 2 48.745329270133965 2.869924884561005 1.82255
529 2 52.03004441819646 8.033219266615378 0.0
530 2 63.99491850128384 1.5327109610047756 1.82255
531 2 67.3656022796196 7.2918676442904475 0.0
532 2 54.30188255860618 5.455590044814209 0.0
533 2 56.4694217984081 2.4699585890960676 0.0
534 3 55.0940512096091 65.06809578729396 1.82255
535 3 56.209489392897524 63.757586400773384 0.0
536 3 60.43122492189894 67.34945466825802 0.0
537 3 59.31578673861053 68.6599640547786 1.82255
538 3 52.28997447124636 62.68237688403066 0.0
539 3 57.898127947971844 67.45381469055725 0.0
540 3 57.6271481835362 64.96373576499472 1.82255
541 3 54.79183060225885 62.55143703655204 1.82255
542 3 57.32492757618594 62.4470770142528 1.82255
543 3 58.44036575947437 61.13656762773223 0.0
544 3 62.66210128847578 64.72843589521686 0.0
545 3 61.54666310518736 66.03894528173744 1.82255
546 3 54.520850837823204 60.0613581109895 0.0
547 3 60.12900431454869 64.8327959175161 0.0
548 3 59.85802455011304 62.342716991953566 1.82255
549 3 57.022706968835685 59.93041826351088 1.82255
550 3 52.86317484303226 67.68911456033511 1.82255
551 3 53.97861302632069 66.37860517381455 0.0
552 3 58.2003485553221 69.97047344129918 0.0
553 3 57.08491037203368 71.28098282781976 1.82255
554 3 50.05909810466952 65.30339565707182 0.0
555 3 55.66725158139501 70.07483346359841 0.0
556 3 55.39627181695936 67.58475453803588 1.82255
557 3 52.560954235682004 65.1724558095932 1.82255
558 3 59.55580394276278 59.82605824121164 1.82255
559 3 60.671242126051204 58.51554885469107 0.0
560 3 64.89297765505262 62.107417122175704 0.0
561 3 63.77753947176421 63.41792650869628 1.82255
562 3 56.75172720440004 57.440339337948345 0.0
563 3 62.35988068112553 62.21177714447494 0.0
564 3 62.08890091668988 59.7216982189124 1.82255
565 3 59.25358333541253 57.30939949046972 1.82255
566 3 50.63229847645542 70.31013333337629 1.82255
567 3 51.74773665974384 68.9996239468557 0.0
568 3 55.96947218874526 72.59149221434035 0.0
569 3 54.85403400545684 73.90200160086093 1.82255
570 3 47.82822173809268 67.92441443011299 0.0
571 3 53.43637521481816 72.69585223663958 0.0
572 3 53.16539545038252 70.20577331107705 1.82255
573 3 50.33007786910517 67.79347458263436 1.82255
574 3 48.40142210987858 72.93115210641746 1.82255
575 3 49.516860293167 71.62064271989688 0.0
576 3 45.59734537151584 70.54543320315415 0.0
577 3 50.93451908380568 72.82679208411821 1.82255
578 3 48.099201502528324 70.41449335567553 1.82255
579 3 61.78668030933962 57.20503946817048 1.82255
580 3 62.90211849262805 55.89453008164991 0.0
581 3 67.12385402162946 59.48639834913455 0.0
582 3 66.00841583834105 60.796907735655125 1.82255
583 3 58.982603570976885 54.81932056490719 0.0
584 3 64.59075704770237 59.59075837143378 0.0
585 3 64.31977728326672 57.10067944587124 1.82255
586 3 61.48445970198937 54.688380717428565 1.82255
587 3 63.53752226761194 72.25183232226324 1.82255
588 3 64.65296045090037 70.94132293574266 0.0
589 3 60.7334455292492 69.86611341899994 0.0
590 3 66.07061924153903 72.147472299964 1.82255
591 3 63.23530166026168 69.73517357152132 1.82255
592 3 46.65058015160626 57.88435925232468 1.82255
593 3 47.76601833489469 56.57384986580411 0.0
594 3 51.9877538638961 60.16571813328874 0.0
595 3 50.872315680607684 61.47622751980932 1.82255
596 3 43.846503413243525 55.49864034906138 0.0
597 3 49.45465688996901 60.27007815558798 0.0
598 3 49.183677125533364 57.779999230025446 1.82255
599 3 46.348359544256006 55.36770050158276 1.82255
600 3 62.42208408432352 73.56234170878382 0.0
601 3 58.50256916267236 72.4871321920411 0.0
602 3 61.00442529368485 72.35619234456249 1.82255
603 3 65.76839863418878 69.63081354922207 1.82255
604 3 66.8838368174772 68.32030416270149 0.0
605 3 71.10557234647862 71.91217243018613 0.0
606 3 69.9901341631902 73.22268181670671 1.82255
607 3 62.96432189582604 67.24509464595877 0.0
608 3 68.57247537255152 72.01653245248536 0.0
609 3 68.30149560811589 69.52645352692284 1.82255
610 3 65.46617802683853 67.11415479848014 1.82255
611 3 44.41970378502942 60.505378025365836 1.82255
612 3 45.535141968317845 59.194868638845264 0.0
613 3 49.75687749731926 62.7867369063299 0.0
614 3 48.64143931403084 64.09724629285049 1.82255
615 3 41.61562704666668 58.11965912210254 0.0
616 3 47.223780523392165 62.89109692862914 0.0